V -t * -v 1.0a5 -a 0
A -t * -n 1 -p 0 -o 0x7fffffff -c 30 -a 1
A -t * -h 1 -m 1073741823 -s 0
c -t * -i 1 -n Blue
c -t * -i 2 -n Red
n -t * -a 4 -s 4 -S UP -v circle -c black -i black
n -t * -a 0 -s 0 -S UP -v circle -c black -i black
n -t * -a 1 -s 1 -S UP -v circle -c black -i black
n -t * -a 2 -s 2 -S UP -v circle -c black -i black
n -t * -a 3 -s 3 -S UP -v circle -c black -i black
l -t * -s 3 -d 1 -S UP -r 2000000 -D 0.01 -c black -o right-up
l -t * -s 1 -d 2 -S UP -r 1000000 -D 0.01 -c black -o right
l -t * -s 2 -d 4 -S UP -r 2000000 -D 0.01 -c black -o right-down
l -t * -s 2 -d 0 -S UP -r 2000000 -D 0.01 -c black -o left-up
l -t * -s 1 -d 0 -S UP -r 2000000 -D 0.01 -c black -o right-up
q -t * -s 2 -d 1 -a 1.0
q -t * -s 1 -d 2 -a 1.0
+ -t 1 -s 3 -d 1 -p tcp -e 40 -c 1 -i 0 -a 1 -x {3.0 4.0 0 ------- null}
- -t 1 -s 3 -d 1 -p tcp -e 40 -c 1 -i 0 -a 1 -x {3.0 4.0 0 ------- null}
h -t 1 -s 3 -d 1 -p tcp -e 40 -c 1 -i 0 -a 1 -x {3.0 4.0 -1 ------- null}
r -t 1.01016 -s 3 -d 1 -p tcp -e 40 -c 1 -i 0 -a 1 -x {3.0 4.0 0 ------- null}
+ -t 1.01016 -s 1 -d 2 -p tcp -e 40 -c 1 -i 0 -a 1 -x {3.0 4.0 0 ------- null}
- -t 1.01016 -s 1 -d 2 -p tcp -e 40 -c 1 -i 0 -a 1 -x {3.0 4.0 0 ------- null}
h -t 1.01016 -s 1 -d 2 -p tcp -e 40 -c 1 -i 0 -a 1 -x {3.0 4.0 -1 ------- null}
r -t 1.02048 -s 1 -d 2 -p tcp -e 40 -c 1 -i 0 -a 1 -x {3.0 4.0 0 ------- null}
+ -t 1.02048 -s 2 -d 4 -p tcp -e 40 -c 1 -i 0 -a 1 -x {3.0 4.0 0 ------- null}
- -t 1.02048 -s 2 -d 4 -p tcp -e 40 -c 1 -i 0 -a 1 -x {3.0 4.0 0 ------- null}
h -t 1.02048 -s 2 -d 4 -p tcp -e 40 -c 1 -i 0 -a 1 -x {3.0 4.0 -1 ------- null}
r -t 1.03064 -s 2 -d 4 -p tcp -e 40 -c 1 -i 0 -a 1 -x {3.0 4.0 0 ------- null}
+ -t 1.03064 -s 4 -d 2 -p ack -e 40 -c 1 -i 1 -a 1 -x {4.0 3.0 0 ------- null}
- -t 1.03064 -s 4 -d 2 -p ack -e 40 -c 1 -i 1 -a 1 -x {4.0 3.0 0 ------- null}
h -t 1.03064 -s 4 -d 2 -p ack -e 40 -c 1 -i 1 -a 1 -x {4.0 3.0 -1 ------- null}
r -t 1.0408 -s 4 -d 2 -p ack -e 40 -c 1 -i 1 -a 1 -x {4.0 3.0 0 ------- null}
+ -t 1.0408 -s 2 -d 1 -p ack -e 40 -c 1 -i 1 -a 1 -x {4.0 3.0 0 ------- null}
- -t 1.0408 -s 2 -d 1 -p ack -e 40 -c 1 -i 1 -a 1 -x {4.0 3.0 0 ------- null}
h -t 1.0408 -s 2 -d 1 -p ack -e 40 -c 1 -i 1 -a 1 -x {4.0 3.0 -1 ------- null}
r -t 1.05112 -s 2 -d 1 -p ack -e 40 -c 1 -i 1 -a 1 -x {4.0 3.0 0 ------- null}
+ -t 1.05112 -s 1 -d 3 -p ack -e 40 -c 1 -i 1 -a 1 -x {4.0 3.0 0 ------- null}
- -t 1.05112 -s 1 -d 3 -p ack -e 40 -c 1 -i 1 -a 1 -x {4.0 3.0 0 ------- null}
h -t 1.05112 -s 1 -d 3 -p ack -e 40 -c 1 -i 1 -a 1 -x {4.0 3.0 -1 ------- null}
r -t 1.06128 -s 1 -d 3 -p ack -e 40 -c 1 -i 1 -a 1 -x {4.0 3.0 0 ------- null}
+ -t 1.06128 -s 3 -d 1 -p tcp -e 1040 -c 1 -i 2 -a 1 -x {3.0 4.0 1 ------- null}
- -t 1.06128 -s 3 -d 1 -p tcp -e 1040 -c 1 -i 2 -a 1 -x {3.0 4.0 1 ------- null}
h -t 1.06128 -s 3 -d 1 -p tcp -e 1040 -c 1 -i 2 -a 1 -x {3.0 4.0 -1 ------- null}
+ -t 1.06128 -s 3 -d 1 -p tcp -e 1040 -c 1 -i 3 -a 1 -x {3.0 4.0 2 ------- null}
- -t 1.06544 -s 3 -d 1 -p tcp -e 1040 -c 1 -i 3 -a 1 -x {3.0 4.0 2 ------- null}
h -t 1.06544 -s 3 -d 1 -p tcp -e 1040 -c 1 -i 3 -a 1 -x {3.0 4.0 -1 ------- null}
r -t 1.07544 -s 3 -d 1 -p tcp -e 1040 -c 1 -i 2 -a 1 -x {3.0 4.0 1 ------- null}
+ -t 1.07544 -s 1 -d 2 -p tcp -e 1040 -c 1 -i 2 -a 1 -x {3.0 4.0 1 ------- null}
- -t 1.07544 -s 1 -d 2 -p tcp -e 1040 -c 1 -i 2 -a 1 -x {3.0 4.0 1 ------- null}
h -t 1.07544 -s 1 -d 2 -p tcp -e 1040 -c 1 -i 2 -a 1 -x {3.0 4.0 -1 ------- null}
r -t 1.0796 -s 3 -d 1 -p tcp -e 1040 -c 1 -i 3 -a 1 -x {3.0 4.0 2 ------- null}
+ -t 1.0796 -s 1 -d 2 -p tcp -e 1040 -c 1 -i 3 -a 1 -x {3.0 4.0 2 ------- null}
- -t 1.08376 -s 1 -d 2 -p tcp -e 1040 -c 1 -i 3 -a 1 -x {3.0 4.0 2 ------- null}
h -t 1.08376 -s 1 -d 2 -p tcp -e 1040 -c 1 -i 3 -a 1 -x {3.0 4.0 -1 ------- null}
r -t 1.09376 -s 1 -d 2 -p tcp -e 1040 -c 1 -i 2 -a 1 -x {3.0 4.0 1 ------- null}
+ -t 1.09376 -s 2 -d 4 -p tcp -e 1040 -c 1 -i 2 -a 1 -x {3.0 4.0 1 ------- null}
- -t 1.09376 -s 2 -d 4 -p tcp -e 1040 -c 1 -i 2 -a 1 -x {3.0 4.0 1 ------- null}
h -t 1.09376 -s 2 -d 4 -p tcp -e 1040 -c 1 -i 2 -a 1 -x {3.0 4.0 -1 ------- null}
r -t 1.10208 -s 1 -d 2 -p tcp -e 1040 -c 1 -i 3 -a 1 -x {3.0 4.0 2 ------- null}
+ -t 1.10208 -s 2 -d 4 -p tcp -e 1040 -c 1 -i 3 -a 1 -x {3.0 4.0 2 ------- null}
- -t 1.10208 -s 2 -d 4 -p tcp -e 1040 -c 1 -i 3 -a 1 -x {3.0 4.0 2 ------- null}
h -t 1.10208 -s 2 -d 4 -p tcp -e 1040 -c 1 -i 3 -a 1 -x {3.0 4.0 -1 ------- null}
r -t 1.10792 -s 2 -d 4 -p tcp -e 1040 -c 1 -i 2 -a 1 -x {3.0 4.0 1 ------- null}
+ -t 1.10792 -s 4 -d 2 -p ack -e 40 -c 1 -i 4 -a 1 -x {4.0 3.0 1 ------- null}
- -t 1.10792 -s 4 -d 2 -p ack -e 40 -c 1 -i 4 -a 1 -x {4.0 3.0 1 ------- null}
h -t 1.10792 -s 4 -d 2 -p ack -e 40 -c 1 -i 4 -a 1 -x {4.0 3.0 -1 ------- null}
r -t 1.11624 -s 2 -d 4 -p tcp -e 1040 -c 1 -i 3 -a 1 -x {3.0 4.0 2 ------- null}
+ -t 1.11624 -s 4 -d 2 -p ack -e 40 -c 1 -i 5 -a 1 -x {4.0 3.0 2 ------- null}
- -t 1.11624 -s 4 -d 2 -p ack -e 40 -c 1 -i 5 -a 1 -x {4.0 3.0 2 ------- null}
h -t 1.11624 -s 4 -d 2 -p ack -e 40 -c 1 -i 5 -a 1 -x {4.0 3.0 -1 ------- null}
r -t 1.11808 -s 4 -d 2 -p ack -e 40 -c 1 -i 4 -a 1 -x {4.0 3.0 1 ------- null}
+ -t 1.11808 -s 2 -d 1 -p ack -e 40 -c 1 -i 4 -a 1 -x {4.0 3.0 1 ------- null}
- -t 1.11808 -s 2 -d 1 -p ack -e 40 -c 1 -i 4 -a 1 -x {4.0 3.0 1 ------- null}
h -t 1.11808 -s 2 -d 1 -p ack -e 40 -c 1 -i 4 -a 1 -x {4.0 3.0 -1 ------- null}
r -t 1.1264 -s 4 -d 2 -p ack -e 40 -c 1 -i 5 -a 1 -x {4.0 3.0 2 ------- null}
+ -t 1.1264 -s 2 -d 1 -p ack -e 40 -c 1 -i 5 -a 1 -x {4.0 3.0 2 ------- null}
- -t 1.1264 -s 2 -d 1 -p ack -e 40 -c 1 -i 5 -a 1 -x {4.0 3.0 2 ------- null}
h -t 1.1264 -s 2 -d 1 -p ack -e 40 -c 1 -i 5 -a 1 -x {4.0 3.0 -1 ------- null}
r -t 1.1284 -s 2 -d 1 -p ack -e 40 -c 1 -i 4 -a 1 -x {4.0 3.0 1 ------- null}
+ -t 1.1284 -s 1 -d 3 -p ack -e 40 -c 1 -i 4 -a 1 -x {4.0 3.0 1 ------- null}
- -t 1.1284 -s 1 -d 3 -p ack -e 40 -c 1 -i 4 -a 1 -x {4.0 3.0 1 ------- null}
h -t 1.1284 -s 1 -d 3 -p ack -e 40 -c 1 -i 4 -a 1 -x {4.0 3.0 -1 ------- null}
r -t 1.13672 -s 2 -d 1 -p ack -e 40 -c 1 -i 5 -a 1 -x {4.0 3.0 2 ------- null}
+ -t 1.13672 -s 1 -d 3 -p ack -e 40 -c 1 -i 5 -a 1 -x {4.0 3.0 2 ------- null}
- -t 1.13672 -s 1 -d 3 -p ack -e 40 -c 1 -i 5 -a 1 -x {4.0 3.0 2 ------- null}
h -t 1.13672 -s 1 -d 3 -p ack -e 40 -c 1 -i 5 -a 1 -x {4.0 3.0 -1 ------- null}
r -t 1.13856 -s 1 -d 3 -p ack -e 40 -c 1 -i 4 -a 1 -x {4.0 3.0 1 ------- null}
+ -t 1.13856 -s 3 -d 1 -p tcp -e 1040 -c 1 -i 6 -a 1 -x {3.0 4.0 3 ------- null}
- -t 1.13856 -s 3 -d 1 -p tcp -e 1040 -c 1 -i 6 -a 1 -x {3.0 4.0 3 ------- null}
h -t 1.13856 -s 3 -d 1 -p tcp -e 1040 -c 1 -i 6 -a 1 -x {3.0 4.0 -1 ------- null}
+ -t 1.13856 -s 3 -d 1 -p tcp -e 1040 -c 1 -i 7 -a 1 -x {3.0 4.0 4 ------- null}
- -t 1.14272 -s 3 -d 1 -p tcp -e 1040 -c 1 -i 7 -a 1 -x {3.0 4.0 4 ------- null}
h -t 1.14272 -s 3 -d 1 -p tcp -e 1040 -c 1 -i 7 -a 1 -x {3.0 4.0 -1 ------- null}
r -t 1.14688 -s 1 -d 3 -p ack -e 40 -c 1 -i 5 -a 1 -x {4.0 3.0 2 ------- null}
+ -t 1.14688 -s 3 -d 1 -p tcp -e 1040 -c 1 -i 8 -a 1 -x {3.0 4.0 5 ------- null}
- -t 1.14688 -s 3 -d 1 -p tcp -e 1040 -c 1 -i 8 -a 1 -x {3.0 4.0 5 ------- null}
h -t 1.14688 -s 3 -d 1 -p tcp -e 1040 -c 1 -i 8 -a 1 -x {3.0 4.0 -1 ------- null}
+ -t 1.14688 -s 3 -d 1 -p tcp -e 1040 -c 1 -i 9 -a 1 -x {3.0 4.0 6 ------- null}
- -t 1.15104 -s 3 -d 1 -p tcp -e 1040 -c 1 -i 9 -a 1 -x {3.0 4.0 6 ------- null}
h -t 1.15104 -s 3 -d 1 -p tcp -e 1040 -c 1 -i 9 -a 1 -x {3.0 4.0 -1 ------- null}
r -t 1.15272 -s 3 -d 1 -p tcp -e 1040 -c 1 -i 6 -a 1 -x {3.0 4.0 3 ------- null}
+ -t 1.15272 -s 1 -d 2 -p tcp -e 1040 -c 1 -i 6 -a 1 -x {3.0 4.0 3 ------- null}
- -t 1.15272 -s 1 -d 2 -p tcp -e 1040 -c 1 -i 6 -a 1 -x {3.0 4.0 3 ------- null}
h -t 1.15272 -s 1 -d 2 -p tcp -e 1040 -c 1 -i 6 -a 1 -x {3.0 4.0 -1 ------- null}
r -t 1.15688 -s 3 -d 1 -p tcp -e 1040 -c 1 -i 7 -a 1 -x {3.0 4.0 4 ------- null}
+ -t 1.15688 -s 1 -d 2 -p tcp -e 1040 -c 1 -i 7 -a 1 -x {3.0 4.0 4 ------- null}
r -t 1.16104 -s 3 -d 1 -p tcp -e 1040 -c 1 -i 8 -a 1 -x {3.0 4.0 5 ------- null}
+ -t 1.16104 -s 1 -d 2 -p tcp -e 1040 -c 1 -i 8 -a 1 -x {3.0 4.0 5 ------- null}
- -t 1.16104 -s 1 -d 2 -p tcp -e 1040 -c 1 -i 7 -a 1 -x {3.0 4.0 4 ------- null}
h -t 1.16104 -s 1 -d 2 -p tcp -e 1040 -c 1 -i 7 -a 1 -x {3.0 4.0 -1 ------- null}
r -t 1.1652 -s 3 -d 1 -p tcp -e 1040 -c 1 -i 9 -a 1 -x {3.0 4.0 6 ------- null}
+ -t 1.1652 -s 1 -d 2 -p tcp -e 1040 -c 1 -i 9 -a 1 -x {3.0 4.0 6 ------- null}
- -t 1.16936 -s 1 -d 2 -p tcp -e 1040 -c 1 -i 8 -a 1 -x {3.0 4.0 5 ------- null}
h -t 1.16936 -s 1 -d 2 -p tcp -e 1040 -c 1 -i 8 -a 1 -x {3.0 4.0 -1 ------- null}
r -t 1.17104 -s 1 -d 2 -p tcp -e 1040 -c 1 -i 6 -a 1 -x {3.0 4.0 3 ------- null}
+ -t 1.17104 -s 2 -d 4 -p tcp -e 1040 -c 1 -i 6 -a 1 -x {3.0 4.0 3 ------- null}
- -t 1.17104 -s 2 -d 4 -p tcp -e 1040 -c 1 -i 6 -a 1 -x {3.0 4.0 3 ------- null}
h -t 1.17104 -s 2 -d 4 -p tcp -e 1040 -c 1 -i 6 -a 1 -x {3.0 4.0 -1 ------- null}
- -t 1.17768 -s 1 -d 2 -p tcp -e 1040 -c 1 -i 9 -a 1 -x {3.0 4.0 6 ------- null}
h -t 1.17768 -s 1 -d 2 -p tcp -e 1040 -c 1 -i 9 -a 1 -x {3.0 4.0 -1 ------- null}
r -t 1.17936 -s 1 -d 2 -p tcp -e 1040 -c 1 -i 7 -a 1 -x {3.0 4.0 4 ------- null}
+ -t 1.17936 -s 2 -d 4 -p tcp -e 1040 -c 1 -i 7 -a 1 -x {3.0 4.0 4 ------- null}
- -t 1.17936 -s 2 -d 4 -p tcp -e 1040 -c 1 -i 7 -a 1 -x {3.0 4.0 4 ------- null}
h -t 1.17936 -s 2 -d 4 -p tcp -e 1040 -c 1 -i 7 -a 1 -x {3.0 4.0 -1 ------- null}
r -t 1.1852 -s 2 -d 4 -p tcp -e 1040 -c 1 -i 6 -a 1 -x {3.0 4.0 3 ------- null}
+ -t 1.1852 -s 4 -d 2 -p ack -e 40 -c 1 -i 10 -a 1 -x {4.0 3.0 3 ------- null}
- -t 1.1852 -s 4 -d 2 -p ack -e 40 -c 1 -i 10 -a 1 -x {4.0 3.0 3 ------- null}
h -t 1.1852 -s 4 -d 2 -p ack -e 40 -c 1 -i 10 -a 1 -x {4.0 3.0 -1 ------- null}
r -t 1.18768 -s 1 -d 2 -p tcp -e 1040 -c 1 -i 8 -a 1 -x {3.0 4.0 5 ------- null}
+ -t 1.18768 -s 2 -d 4 -p tcp -e 1040 -c 1 -i 8 -a 1 -x {3.0 4.0 5 ------- null}
- -t 1.18768 -s 2 -d 4 -p tcp -e 1040 -c 1 -i 8 -a 1 -x {3.0 4.0 5 ------- null}
h -t 1.18768 -s 2 -d 4 -p tcp -e 1040 -c 1 -i 8 -a 1 -x {3.0 4.0 -1 ------- null}
r -t 1.19352 -s 2 -d 4 -p tcp -e 1040 -c 1 -i 7 -a 1 -x {3.0 4.0 4 ------- null}
+ -t 1.19352 -s 4 -d 2 -p ack -e 40 -c 1 -i 11 -a 1 -x {4.0 3.0 4 ------- null}
- -t 1.19352 -s 4 -d 2 -p ack -e 40 -c 1 -i 11 -a 1 -x {4.0 3.0 4 ------- null}
h -t 1.19352 -s 4 -d 2 -p ack -e 40 -c 1 -i 11 -a 1 -x {4.0 3.0 -1 ------- null}
r -t 1.19536 -s 4 -d 2 -p ack -e 40 -c 1 -i 10 -a 1 -x {4.0 3.0 3 ------- null}
+ -t 1.19536 -s 2 -d 1 -p ack -e 40 -c 1 -i 10 -a 1 -x {4.0 3.0 3 ------- null}
- -t 1.19536 -s 2 -d 1 -p ack -e 40 -c 1 -i 10 -a 1 -x {4.0 3.0 3 ------- null}
h -t 1.19536 -s 2 -d 1 -p ack -e 40 -c 1 -i 10 -a 1 -x {4.0 3.0 -1 ------- null}
r -t 1.196 -s 1 -d 2 -p tcp -e 1040 -c 1 -i 9 -a 1 -x {3.0 4.0 6 ------- null}
+ -t 1.196 -s 2 -d 4 -p tcp -e 1040 -c 1 -i 9 -a 1 -x {3.0 4.0 6 ------- null}
- -t 1.196 -s 2 -d 4 -p tcp -e 1040 -c 1 -i 9 -a 1 -x {3.0 4.0 6 ------- null}
h -t 1.196 -s 2 -d 4 -p tcp -e 1040 -c 1 -i 9 -a 1 -x {3.0 4.0 -1 ------- null}
r -t 1.20184 -s 2 -d 4 -p tcp -e 1040 -c 1 -i 8 -a 1 -x {3.0 4.0 5 ------- null}
+ -t 1.20184 -s 4 -d 2 -p ack -e 40 -c 1 -i 12 -a 1 -x {4.0 3.0 5 ------- null}
- -t 1.20184 -s 4 -d 2 -p ack -e 40 -c 1 -i 12 -a 1 -x {4.0 3.0 5 ------- null}
h -t 1.20184 -s 4 -d 2 -p ack -e 40 -c 1 -i 12 -a 1 -x {4.0 3.0 -1 ------- null}
r -t 1.20368 -s 4 -d 2 -p ack -e 40 -c 1 -i 11 -a 1 -x {4.0 3.0 4 ------- null}
+ -t 1.20368 -s 2 -d 1 -p ack -e 40 -c 1 -i 11 -a 1 -x {4.0 3.0 4 ------- null}
- -t 1.20368 -s 2 -d 1 -p ack -e 40 -c 1 -i 11 -a 1 -x {4.0 3.0 4 ------- null}
h -t 1.20368 -s 2 -d 1 -p ack -e 40 -c 1 -i 11 -a 1 -x {4.0 3.0 -1 ------- null}
r -t 1.20568 -s 2 -d 1 -p ack -e 40 -c 1 -i 10 -a 1 -x {4.0 3.0 3 ------- null}
+ -t 1.20568 -s 1 -d 3 -p ack -e 40 -c 1 -i 10 -a 1 -x {4.0 3.0 3 ------- null}
- -t 1.20568 -s 1 -d 3 -p ack -e 40 -c 1 -i 10 -a 1 -x {4.0 3.0 3 ------- null}
h -t 1.20568 -s 1 -d 3 -p ack -e 40 -c 1 -i 10 -a 1 -x {4.0 3.0 -1 ------- null}
r -t 1.21016 -s 2 -d 4 -p tcp -e 1040 -c 1 -i 9 -a 1 -x {3.0 4.0 6 ------- null}
+ -t 1.21016 -s 4 -d 2 -p ack -e 40 -c 1 -i 13 -a 1 -x {4.0 3.0 6 ------- null}
- -t 1.21016 -s 4 -d 2 -p ack -e 40 -c 1 -i 13 -a 1 -x {4.0 3.0 6 ------- null}
h -t 1.21016 -s 4 -d 2 -p ack -e 40 -c 1 -i 13 -a 1 -x {4.0 3.0 -1 ------- null}
r -t 1.212 -s 4 -d 2 -p ack -e 40 -c 1 -i 12 -a 1 -x {4.0 3.0 5 ------- null}
+ -t 1.212 -s 2 -d 1 -p ack -e 40 -c 1 -i 12 -a 1 -x {4.0 3.0 5 ------- null}
- -t 1.212 -s 2 -d 1 -p ack -e 40 -c 1 -i 12 -a 1 -x {4.0 3.0 5 ------- null}
h -t 1.212 -s 2 -d 1 -p ack -e 40 -c 1 -i 12 -a 1 -x {4.0 3.0 -1 ------- null}
r -t 1.214 -s 2 -d 1 -p ack -e 40 -c 1 -i 11 -a 1 -x {4.0 3.0 4 ------- null}
+ -t 1.214 -s 1 -d 3 -p ack -e 40 -c 1 -i 11 -a 1 -x {4.0 3.0 4 ------- null}
- -t 1.214 -s 1 -d 3 -p ack -e 40 -c 1 -i 11 -a 1 -x {4.0 3.0 4 ------- null}
h -t 1.214 -s 1 -d 3 -p ack -e 40 -c 1 -i 11 -a 1 -x {4.0 3.0 -1 ------- null}
r -t 1.21584 -s 1 -d 3 -p ack -e 40 -c 1 -i 10 -a 1 -x {4.0 3.0 3 ------- null}
+ -t 1.21584 -s 3 -d 1 -p tcp -e 1040 -c 1 -i 14 -a 1 -x {3.0 4.0 7 ------- null}
- -t 1.21584 -s 3 -d 1 -p tcp -e 1040 -c 1 -i 14 -a 1 -x {3.0 4.0 7 ------- null}
h -t 1.21584 -s 3 -d 1 -p tcp -e 1040 -c 1 -i 14 -a 1 -x {3.0 4.0 -1 ------- null}
+ -t 1.21584 -s 3 -d 1 -p tcp -e 1040 -c 1 -i 15 -a 1 -x {3.0 4.0 8 ------- null}
- -t 1.22 -s 3 -d 1 -p tcp -e 1040 -c 1 -i 15 -a 1 -x {3.0 4.0 8 ------- null}
h -t 1.22 -s 3 -d 1 -p tcp -e 1040 -c 1 -i 15 -a 1 -x {3.0 4.0 -1 ------- null}
r -t 1.22032 -s 4 -d 2 -p ack -e 40 -c 1 -i 13 -a 1 -x {4.0 3.0 6 ------- null}
+ -t 1.22032 -s 2 -d 1 -p ack -e 40 -c 1 -i 13 -a 1 -x {4.0 3.0 6 ------- null}
- -t 1.22032 -s 2 -d 1 -p ack -e 40 -c 1 -i 13 -a 1 -x {4.0 3.0 6 ------- null}
h -t 1.22032 -s 2 -d 1 -p ack -e 40 -c 1 -i 13 -a 1 -x {4.0 3.0 -1 ------- null}
r -t 1.22232 -s 2 -d 1 -p ack -e 40 -c 1 -i 12 -a 1 -x {4.0 3.0 5 ------- null}
+ -t 1.22232 -s 1 -d 3 -p ack -e 40 -c 1 -i 12 -a 1 -x {4.0 3.0 5 ------- null}
- -t 1.22232 -s 1 -d 3 -p ack -e 40 -c 1 -i 12 -a 1 -x {4.0 3.0 5 ------- null}
h -t 1.22232 -s 1 -d 3 -p ack -e 40 -c 1 -i 12 -a 1 -x {4.0 3.0 -1 ------- null}
r -t 1.22416 -s 1 -d 3 -p ack -e 40 -c 1 -i 11 -a 1 -x {4.0 3.0 4 ------- null}
+ -t 1.22416 -s 3 -d 1 -p tcp -e 1040 -c 1 -i 16 -a 1 -x {3.0 4.0 9 ------- null}
- -t 1.22416 -s 3 -d 1 -p tcp -e 1040 -c 1 -i 16 -a 1 -x {3.0 4.0 9 ------- null}
h -t 1.22416 -s 3 -d 1 -p tcp -e 1040 -c 1 -i 16 -a 1 -x {3.0 4.0 -1 ------- null}
+ -t 1.22416 -s 3 -d 1 -p tcp -e 1040 -c 1 -i 17 -a 1 -x {3.0 4.0 10 ------- null}
- -t 1.22832 -s 3 -d 1 -p tcp -e 1040 -c 1 -i 17 -a 1 -x {3.0 4.0 10 ------- null}
h -t 1.22832 -s 3 -d 1 -p tcp -e 1040 -c 1 -i 17 -a 1 -x {3.0 4.0 -1 ------- null}
r -t 1.23 -s 3 -d 1 -p tcp -e 1040 -c 1 -i 14 -a 1 -x {3.0 4.0 7 ------- null}
+ -t 1.23 -s 1 -d 2 -p tcp -e 1040 -c 1 -i 14 -a 1 -x {3.0 4.0 7 ------- null}
- -t 1.23 -s 1 -d 2 -p tcp -e 1040 -c 1 -i 14 -a 1 -x {3.0 4.0 7 ------- null}
h -t 1.23 -s 1 -d 2 -p tcp -e 1040 -c 1 -i 14 -a 1 -x {3.0 4.0 -1 ------- null}
r -t 1.23064 -s 2 -d 1 -p ack -e 40 -c 1 -i 13 -a 1 -x {4.0 3.0 6 ------- null}
+ -t 1.23064 -s 1 -d 3 -p ack -e 40 -c 1 -i 13 -a 1 -x {4.0 3.0 6 ------- null}
- -t 1.23064 -s 1 -d 3 -p ack -e 40 -c 1 -i 13 -a 1 -x {4.0 3.0 6 ------- null}
h -t 1.23064 -s 1 -d 3 -p ack -e 40 -c 1 -i 13 -a 1 -x {4.0 3.0 -1 ------- null}
r -t 1.23248 -s 1 -d 3 -p ack -e 40 -c 1 -i 12 -a 1 -x {4.0 3.0 5 ------- null}
+ -t 1.23248 -s 3 -d 1 -p tcp -e 1040 -c 1 -i 18 -a 1 -x {3.0 4.0 11 ------- null}
- -t 1.23248 -s 3 -d 1 -p tcp -e 1040 -c 1 -i 18 -a 1 -x {3.0 4.0 11 ------- null}
h -t 1.23248 -s 3 -d 1 -p tcp -e 1040 -c 1 -i 18 -a 1 -x {3.0 4.0 -1 ------- null}
+ -t 1.23248 -s 3 -d 1 -p tcp -e 1040 -c 1 -i 19 -a 1 -x {3.0 4.0 12 ------- null}
r -t 1.23416 -s 3 -d 1 -p tcp -e 1040 -c 1 -i 15 -a 1 -x {3.0 4.0 8 ------- null}
+ -t 1.23416 -s 1 -d 2 -p tcp -e 1040 -c 1 -i 15 -a 1 -x {3.0 4.0 8 ------- null}
- -t 1.23664 -s 3 -d 1 -p tcp -e 1040 -c 1 -i 19 -a 1 -x {3.0 4.0 12 ------- null}
h -t 1.23664 -s 3 -d 1 -p tcp -e 1040 -c 1 -i 19 -a 1 -x {3.0 4.0 -1 ------- null}
r -t 1.23832 -s 3 -d 1 -p tcp -e 1040 -c 1 -i 16 -a 1 -x {3.0 4.0 9 ------- null}
+ -t 1.23832 -s 1 -d 2 -p tcp -e 1040 -c 1 -i 16 -a 1 -x {3.0 4.0 9 ------- null}
- -t 1.23832 -s 1 -d 2 -p tcp -e 1040 -c 1 -i 15 -a 1 -x {3.0 4.0 8 ------- null}
h -t 1.23832 -s 1 -d 2 -p tcp -e 1040 -c 1 -i 15 -a 1 -x {3.0 4.0 -1 ------- null}
r -t 1.2408 -s 1 -d 3 -p ack -e 40 -c 1 -i 13 -a 1 -x {4.0 3.0 6 ------- null}
+ -t 1.2408 -s 3 -d 1 -p tcp -e 1040 -c 1 -i 20 -a 1 -x {3.0 4.0 13 ------- null}
- -t 1.2408 -s 3 -d 1 -p tcp -e 1040 -c 1 -i 20 -a 1 -x {3.0 4.0 13 ------- null}
h -t 1.2408 -s 3 -d 1 -p tcp -e 1040 -c 1 -i 20 -a 1 -x {3.0 4.0 -1 ------- null}
+ -t 1.2408 -s 3 -d 1 -p tcp -e 1040 -c 1 -i 21 -a 1 -x {3.0 4.0 14 ------- null}
r -t 1.24248 -s 3 -d 1 -p tcp -e 1040 -c 1 -i 17 -a 1 -x {3.0 4.0 10 ------- null}
+ -t 1.24248 -s 1 -d 2 -p tcp -e 1040 -c 1 -i 17 -a 1 -x {3.0 4.0 10 ------- null}
- -t 1.24496 -s 3 -d 1 -p tcp -e 1040 -c 1 -i 21 -a 1 -x {3.0 4.0 14 ------- null}
h -t 1.24496 -s 3 -d 1 -p tcp -e 1040 -c 1 -i 21 -a 1 -x {3.0 4.0 -1 ------- null}
r -t 1.24664 -s 3 -d 1 -p tcp -e 1040 -c 1 -i 18 -a 1 -x {3.0 4.0 11 ------- null}
+ -t 1.24664 -s 1 -d 2 -p tcp -e 1040 -c 1 -i 18 -a 1 -x {3.0 4.0 11 ------- null}
- -t 1.24664 -s 1 -d 2 -p tcp -e 1040 -c 1 -i 16 -a 1 -x {3.0 4.0 9 ------- null}
h -t 1.24664 -s 1 -d 2 -p tcp -e 1040 -c 1 -i 16 -a 1 -x {3.0 4.0 -1 ------- null}
r -t 1.24832 -s 1 -d 2 -p tcp -e 1040 -c 1 -i 14 -a 1 -x {3.0 4.0 7 ------- null}
+ -t 1.24832 -s 2 -d 4 -p tcp -e 1040 -c 1 -i 14 -a 1 -x {3.0 4.0 7 ------- null}
- -t 1.24832 -s 2 -d 4 -p tcp -e 1040 -c 1 -i 14 -a 1 -x {3.0 4.0 7 ------- null}
h -t 1.24832 -s 2 -d 4 -p tcp -e 1040 -c 1 -i 14 -a 1 -x {3.0 4.0 -1 ------- null}
r -t 1.2508 -s 3 -d 1 -p tcp -e 1040 -c 1 -i 19 -a 1 -x {3.0 4.0 12 ------- null}
+ -t 1.2508 -s 1 -d 2 -p tcp -e 1040 -c 1 -i 19 -a 1 -x {3.0 4.0 12 ------- null}
r -t 1.25496 -s 3 -d 1 -p tcp -e 1040 -c 1 -i 20 -a 1 -x {3.0 4.0 13 ------- null}
+ -t 1.25496 -s 1 -d 2 -p tcp -e 1040 -c 1 -i 20 -a 1 -x {3.0 4.0 13 ------- null}
- -t 1.25496 -s 1 -d 2 -p tcp -e 1040 -c 1 -i 17 -a 1 -x {3.0 4.0 10 ------- null}
h -t 1.25496 -s 1 -d 2 -p tcp -e 1040 -c 1 -i 17 -a 1 -x {3.0 4.0 -1 ------- null}
r -t 1.25664 -s 1 -d 2 -p tcp -e 1040 -c 1 -i 15 -a 1 -x {3.0 4.0 8 ------- null}
+ -t 1.25664 -s 2 -d 4 -p tcp -e 1040 -c 1 -i 15 -a 1 -x {3.0 4.0 8 ------- null}
- -t 1.25664 -s 2 -d 4 -p tcp -e 1040 -c 1 -i 15 -a 1 -x {3.0 4.0 8 ------- null}
h -t 1.25664 -s 2 -d 4 -p tcp -e 1040 -c 1 -i 15 -a 1 -x {3.0 4.0 -1 ------- null}
r -t 1.25912 -s 3 -d 1 -p tcp -e 1040 -c 1 -i 21 -a 1 -x {3.0 4.0 14 ------- null}
+ -t 1.25912 -s 1 -d 2 -p tcp -e 1040 -c 1 -i 21 -a 1 -x {3.0 4.0 14 ------- null}
r -t 1.26248 -s 2 -d 4 -p tcp -e 1040 -c 1 -i 14 -a 1 -x {3.0 4.0 7 ------- null}
+ -t 1.26248 -s 4 -d 2 -p ack -e 40 -c 1 -i 22 -a 1 -x {4.0 3.0 7 ------- null}
- -t 1.26248 -s 4 -d 2 -p ack -e 40 -c 1 -i 22 -a 1 -x {4.0 3.0 7 ------- null}
h -t 1.26248 -s 4 -d 2 -p ack -e 40 -c 1 -i 22 -a 1 -x {4.0 3.0 -1 ------- null}
- -t 1.26328 -s 1 -d 2 -p tcp -e 1040 -c 1 -i 18 -a 1 -x {3.0 4.0 11 ------- null}
h -t 1.26328 -s 1 -d 2 -p tcp -e 1040 -c 1 -i 18 -a 1 -x {3.0 4.0 -1 ------- null}
r -t 1.26496 -s 1 -d 2 -p tcp -e 1040 -c 1 -i 16 -a 1 -x {3.0 4.0 9 ------- null}
+ -t 1.26496 -s 2 -d 4 -p tcp -e 1040 -c 1 -i 16 -a 1 -x {3.0 4.0 9 ------- null}
- -t 1.26496 -s 2 -d 4 -p tcp -e 1040 -c 1 -i 16 -a 1 -x {3.0 4.0 9 ------- null}
h -t 1.26496 -s 2 -d 4 -p tcp -e 1040 -c 1 -i 16 -a 1 -x {3.0 4.0 -1 ------- null}
r -t 1.2708 -s 2 -d 4 -p tcp -e 1040 -c 1 -i 15 -a 1 -x {3.0 4.0 8 ------- null}
+ -t 1.2708 -s 4 -d 2 -p ack -e 40 -c 1 -i 23 -a 1 -x {4.0 3.0 8 ------- null}
- -t 1.2708 -s 4 -d 2 -p ack -e 40 -c 1 -i 23 -a 1 -x {4.0 3.0 8 ------- null}
h -t 1.2708 -s 4 -d 2 -p ack -e 40 -c 1 -i 23 -a 1 -x {4.0 3.0 -1 ------- null}
- -t 1.2716 -s 1 -d 2 -p tcp -e 1040 -c 1 -i 19 -a 1 -x {3.0 4.0 12 ------- null}
h -t 1.2716 -s 1 -d 2 -p tcp -e 1040 -c 1 -i 19 -a 1 -x {3.0 4.0 -1 ------- null}
r -t 1.27264 -s 4 -d 2 -p ack -e 40 -c 1 -i 22 -a 1 -x {4.0 3.0 7 ------- null}
+ -t 1.27264 -s 2 -d 1 -p ack -e 40 -c 1 -i 22 -a 1 -x {4.0 3.0 7 ------- null}
- -t 1.27264 -s 2 -d 1 -p ack -e 40 -c 1 -i 22 -a 1 -x {4.0 3.0 7 ------- null}
h -t 1.27264 -s 2 -d 1 -p ack -e 40 -c 1 -i 22 -a 1 -x {4.0 3.0 -1 ------- null}
r -t 1.27328 -s 1 -d 2 -p tcp -e 1040 -c 1 -i 17 -a 1 -x {3.0 4.0 10 ------- null}
+ -t 1.27328 -s 2 -d 4 -p tcp -e 1040 -c 1 -i 17 -a 1 -x {3.0 4.0 10 ------- null}
- -t 1.27328 -s 2 -d 4 -p tcp -e 1040 -c 1 -i 17 -a 1 -x {3.0 4.0 10 ------- null}
h -t 1.27328 -s 2 -d 4 -p tcp -e 1040 -c 1 -i 17 -a 1 -x {3.0 4.0 -1 ------- null}
r -t 1.27912 -s 2 -d 4 -p tcp -e 1040 -c 1 -i 16 -a 1 -x {3.0 4.0 9 ------- null}
+ -t 1.27912 -s 4 -d 2 -p ack -e 40 -c 1 -i 24 -a 1 -x {4.0 3.0 9 ------- null}
- -t 1.27912 -s 4 -d 2 -p ack -e 40 -c 1 -i 24 -a 1 -x {4.0 3.0 9 ------- null}
h -t 1.27912 -s 4 -d 2 -p ack -e 40 -c 1 -i 24 -a 1 -x {4.0 3.0 -1 ------- null}
- -t 1.27992 -s 1 -d 2 -p tcp -e 1040 -c 1 -i 20 -a 1 -x {3.0 4.0 13 ------- null}
h -t 1.27992 -s 1 -d 2 -p tcp -e 1040 -c 1 -i 20 -a 1 -x {3.0 4.0 -1 ------- null}
r -t 1.28096 -s 4 -d 2 -p ack -e 40 -c 1 -i 23 -a 1 -x {4.0 3.0 8 ------- null}
+ -t 1.28096 -s 2 -d 1 -p ack -e 40 -c 1 -i 23 -a 1 -x {4.0 3.0 8 ------- null}
- -t 1.28096 -s 2 -d 1 -p ack -e 40 -c 1 -i 23 -a 1 -x {4.0 3.0 8 ------- null}
h -t 1.28096 -s 2 -d 1 -p ack -e 40 -c 1 -i 23 -a 1 -x {4.0 3.0 -1 ------- null}
r -t 1.2816 -s 1 -d 2 -p tcp -e 1040 -c 1 -i 18 -a 1 -x {3.0 4.0 11 ------- null}
+ -t 1.2816 -s 2 -d 4 -p tcp -e 1040 -c 1 -i 18 -a 1 -x {3.0 4.0 11 ------- null}
- -t 1.2816 -s 2 -d 4 -p tcp -e 1040 -c 1 -i 18 -a 1 -x {3.0 4.0 11 ------- null}
h -t 1.2816 -s 2 -d 4 -p tcp -e 1040 -c 1 -i 18 -a 1 -x {3.0 4.0 -1 ------- null}
r -t 1.28296 -s 2 -d 1 -p ack -e 40 -c 1 -i 22 -a 1 -x {4.0 3.0 7 ------- null}
+ -t 1.28296 -s 1 -d 3 -p ack -e 40 -c 1 -i 22 -a 1 -x {4.0 3.0 7 ------- null}
- -t 1.28296 -s 1 -d 3 -p ack -e 40 -c 1 -i 22 -a 1 -x {4.0 3.0 7 ------- null}
h -t 1.28296 -s 1 -d 3 -p ack -e 40 -c 1 -i 22 -a 1 -x {4.0 3.0 -1 ------- null}
r -t 1.28744 -s 2 -d 4 -p tcp -e 1040 -c 1 -i 17 -a 1 -x {3.0 4.0 10 ------- null}
+ -t 1.28744 -s 4 -d 2 -p ack -e 40 -c 1 -i 25 -a 1 -x {4.0 3.0 10 ------- null}
- -t 1.28744 -s 4 -d 2 -p ack -e 40 -c 1 -i 25 -a 1 -x {4.0 3.0 10 ------- null}
h -t 1.28744 -s 4 -d 2 -p ack -e 40 -c 1 -i 25 -a 1 -x {4.0 3.0 -1 ------- null}
- -t 1.28824 -s 1 -d 2 -p tcp -e 1040 -c 1 -i 21 -a 1 -x {3.0 4.0 14 ------- null}
h -t 1.28824 -s 1 -d 2 -p tcp -e 1040 -c 1 -i 21 -a 1 -x {3.0 4.0 -1 ------- null}
r -t 1.28928 -s 4 -d 2 -p ack -e 40 -c 1 -i 24 -a 1 -x {4.0 3.0 9 ------- null}
+ -t 1.28928 -s 2 -d 1 -p ack -e 40 -c 1 -i 24 -a 1 -x {4.0 3.0 9 ------- null}
- -t 1.28928 -s 2 -d 1 -p ack -e 40 -c 1 -i 24 -a 1 -x {4.0 3.0 9 ------- null}
h -t 1.28928 -s 2 -d 1 -p ack -e 40 -c 1 -i 24 -a 1 -x {4.0 3.0 -1 ------- null}
r -t 1.28992 -s 1 -d 2 -p tcp -e 1040 -c 1 -i 19 -a 1 -x {3.0 4.0 12 ------- null}
+ -t 1.28992 -s 2 -d 4 -p tcp -e 1040 -c 1 -i 19 -a 1 -x {3.0 4.0 12 ------- null}
- -t 1.28992 -s 2 -d 4 -p tcp -e 1040 -c 1 -i 19 -a 1 -x {3.0 4.0 12 ------- null}
h -t 1.28992 -s 2 -d 4 -p tcp -e 1040 -c 1 -i 19 -a 1 -x {3.0 4.0 -1 ------- null}
r -t 1.29128 -s 2 -d 1 -p ack -e 40 -c 1 -i 23 -a 1 -x {4.0 3.0 8 ------- null}
+ -t 1.29128 -s 1 -d 3 -p ack -e 40 -c 1 -i 23 -a 1 -x {4.0 3.0 8 ------- null}
- -t 1.29128 -s 1 -d 3 -p ack -e 40 -c 1 -i 23 -a 1 -x {4.0 3.0 8 ------- null}
h -t 1.29128 -s 1 -d 3 -p ack -e 40 -c 1 -i 23 -a 1 -x {4.0 3.0 -1 ------- null}
r -t 1.29312 -s 1 -d 3 -p ack -e 40 -c 1 -i 22 -a 1 -x {4.0 3.0 7 ------- null}
+ -t 1.29312 -s 3 -d 1 -p tcp -e 1040 -c 1 -i 26 -a 1 -x {3.0 4.0 15 ------- null}
- -t 1.29312 -s 3 -d 1 -p tcp -e 1040 -c 1 -i 26 -a 1 -x {3.0 4.0 15 ------- null}
h -t 1.29312 -s 3 -d 1 -p tcp -e 1040 -c 1 -i 26 -a 1 -x {3.0 4.0 -1 ------- null}
+ -t 1.29312 -s 3 -d 1 -p tcp -e 1040 -c 1 -i 27 -a 1 -x {3.0 4.0 16 ------- null}
r -t 1.29576 -s 2 -d 4 -p tcp -e 1040 -c 1 -i 18 -a 1 -x {3.0 4.0 11 ------- null}
+ -t 1.29576 -s 4 -d 2 -p ack -e 40 -c 1 -i 28 -a 1 -x {4.0 3.0 11 ------- null}
- -t 1.29576 -s 4 -d 2 -p ack -e 40 -c 1 -i 28 -a 1 -x {4.0 3.0 11 ------- null}
h -t 1.29576 -s 4 -d 2 -p ack -e 40 -c 1 -i 28 -a 1 -x {4.0 3.0 -1 ------- null}
- -t 1.29728 -s 3 -d 1 -p tcp -e 1040 -c 1 -i 27 -a 1 -x {3.0 4.0 16 ------- null}
h -t 1.29728 -s 3 -d 1 -p tcp -e 1040 -c 1 -i 27 -a 1 -x {3.0 4.0 -1 ------- null}
r -t 1.2976 -s 4 -d 2 -p ack -e 40 -c 1 -i 25 -a 1 -x {4.0 3.0 10 ------- null}
+ -t 1.2976 -s 2 -d 1 -p ack -e 40 -c 1 -i 25 -a 1 -x {4.0 3.0 10 ------- null}
- -t 1.2976 -s 2 -d 1 -p ack -e 40 -c 1 -i 25 -a 1 -x {4.0 3.0 10 ------- null}
h -t 1.2976 -s 2 -d 1 -p ack -e 40 -c 1 -i 25 -a 1 -x {4.0 3.0 -1 ------- null}
r -t 1.29824 -s 1 -d 2 -p tcp -e 1040 -c 1 -i 20 -a 1 -x {3.0 4.0 13 ------- null}
+ -t 1.29824 -s 2 -d 4 -p tcp -e 1040 -c 1 -i 20 -a 1 -x {3.0 4.0 13 ------- null}
- -t 1.29824 -s 2 -d 4 -p tcp -e 1040 -c 1 -i 20 -a 1 -x {3.0 4.0 13 ------- null}
h -t 1.29824 -s 2 -d 4 -p tcp -e 1040 -c 1 -i 20 -a 1 -x {3.0 4.0 -1 ------- null}
r -t 1.2996 -s 2 -d 1 -p ack -e 40 -c 1 -i 24 -a 1 -x {4.0 3.0 9 ------- null}
+ -t 1.2996 -s 1 -d 3 -p ack -e 40 -c 1 -i 24 -a 1 -x {4.0 3.0 9 ------- null}
- -t 1.2996 -s 1 -d 3 -p ack -e 40 -c 1 -i 24 -a 1 -x {4.0 3.0 9 ------- null}
h -t 1.2996 -s 1 -d 3 -p ack -e 40 -c 1 -i 24 -a 1 -x {4.0 3.0 -1 ------- null}
r -t 1.30144 -s 1 -d 3 -p ack -e 40 -c 1 -i 23 -a 1 -x {4.0 3.0 8 ------- null}
+ -t 1.30144 -s 3 -d 1 -p tcp -e 1040 -c 1 -i 29 -a 1 -x {3.0 4.0 17 ------- null}
- -t 1.30144 -s 3 -d 1 -p tcp -e 1040 -c 1 -i 29 -a 1 -x {3.0 4.0 17 ------- null}
h -t 1.30144 -s 3 -d 1 -p tcp -e 1040 -c 1 -i 29 -a 1 -x {3.0 4.0 -1 ------- null}
+ -t 1.30144 -s 3 -d 1 -p tcp -e 1040 -c 1 -i 30 -a 1 -x {3.0 4.0 18 ------- null}
r -t 1.30408 -s 2 -d 4 -p tcp -e 1040 -c 1 -i 19 -a 1 -x {3.0 4.0 12 ------- null}
+ -t 1.30408 -s 4 -d 2 -p ack -e 40 -c 1 -i 31 -a 1 -x {4.0 3.0 12 ------- null}
- -t 1.30408 -s 4 -d 2 -p ack -e 40 -c 1 -i 31 -a 1 -x {4.0 3.0 12 ------- null}
h -t 1.30408 -s 4 -d 2 -p ack -e 40 -c 1 -i 31 -a 1 -x {4.0 3.0 -1 ------- null}
- -t 1.3056 -s 3 -d 1 -p tcp -e 1040 -c 1 -i 30 -a 1 -x {3.0 4.0 18 ------- null}
h -t 1.3056 -s 3 -d 1 -p tcp -e 1040 -c 1 -i 30 -a 1 -x {3.0 4.0 -1 ------- null}
r -t 1.30592 -s 4 -d 2 -p ack -e 40 -c 1 -i 28 -a 1 -x {4.0 3.0 11 ------- null}
+ -t 1.30592 -s 2 -d 1 -p ack -e 40 -c 1 -i 28 -a 1 -x {4.0 3.0 11 ------- null}
- -t 1.30592 -s 2 -d 1 -p ack -e 40 -c 1 -i 28 -a 1 -x {4.0 3.0 11 ------- null}
h -t 1.30592 -s 2 -d 1 -p ack -e 40 -c 1 -i 28 -a 1 -x {4.0 3.0 -1 ------- null}
r -t 1.30656 -s 1 -d 2 -p tcp -e 1040 -c 1 -i 21 -a 1 -x {3.0 4.0 14 ------- null}
+ -t 1.30656 -s 2 -d 4 -p tcp -e 1040 -c 1 -i 21 -a 1 -x {3.0 4.0 14 ------- null}
- -t 1.30656 -s 2 -d 4 -p tcp -e 1040 -c 1 -i 21 -a 1 -x {3.0 4.0 14 ------- null}
h -t 1.30656 -s 2 -d 4 -p tcp -e 1040 -c 1 -i 21 -a 1 -x {3.0 4.0 -1 ------- null}
r -t 1.30728 -s 3 -d 1 -p tcp -e 1040 -c 1 -i 26 -a 1 -x {3.0 4.0 15 ------- null}
+ -t 1.30728 -s 1 -d 2 -p tcp -e 1040 -c 1 -i 26 -a 1 -x {3.0 4.0 15 ------- null}
- -t 1.30728 -s 1 -d 2 -p tcp -e 1040 -c 1 -i 26 -a 1 -x {3.0 4.0 15 ------- null}
h -t 1.30728 -s 1 -d 2 -p tcp -e 1040 -c 1 -i 26 -a 1 -x {3.0 4.0 -1 ------- null}
r -t 1.30792 -s 2 -d 1 -p ack -e 40 -c 1 -i 25 -a 1 -x {4.0 3.0 10 ------- null}
+ -t 1.30792 -s 1 -d 3 -p ack -e 40 -c 1 -i 25 -a 1 -x {4.0 3.0 10 ------- null}
- -t 1.30792 -s 1 -d 3 -p ack -e 40 -c 1 -i 25 -a 1 -x {4.0 3.0 10 ------- null}
h -t 1.30792 -s 1 -d 3 -p ack -e 40 -c 1 -i 25 -a 1 -x {4.0 3.0 -1 ------- null}
r -t 1.30976 -s 1 -d 3 -p ack -e 40 -c 1 -i 24 -a 1 -x {4.0 3.0 9 ------- null}
+ -t 1.30976 -s 3 -d 1 -p tcp -e 1040 -c 1 -i 32 -a 1 -x {3.0 4.0 19 ------- null}
- -t 1.30976 -s 3 -d 1 -p tcp -e 1040 -c 1 -i 32 -a 1 -x {3.0 4.0 19 ------- null}
h -t 1.30976 -s 3 -d 1 -p tcp -e 1040 -c 1 -i 32 -a 1 -x {3.0 4.0 -1 ------- null}
+ -t 1.30976 -s 3 -d 1 -p tcp -e 1040 -c 1 -i 33 -a 1 -x {3.0 4.0 20 ------- null}
r -t 1.31144 -s 3 -d 1 -p tcp -e 1040 -c 1 -i 27 -a 1 -x {3.0 4.0 16 ------- null}
+ -t 1.31144 -s 1 -d 2 -p tcp -e 1040 -c 1 -i 27 -a 1 -x {3.0 4.0 16 ------- null}
r -t 1.3124 -s 2 -d 4 -p tcp -e 1040 -c 1 -i 20 -a 1 -x {3.0 4.0 13 ------- null}
+ -t 1.3124 -s 4 -d 2 -p ack -e 40 -c 1 -i 34 -a 1 -x {4.0 3.0 13 ------- null}
- -t 1.3124 -s 4 -d 2 -p ack -e 40 -c 1 -i 34 -a 1 -x {4.0 3.0 13 ------- null}
h -t 1.3124 -s 4 -d 2 -p ack -e 40 -c 1 -i 34 -a 1 -x {4.0 3.0 -1 ------- null}
- -t 1.31392 -s 3 -d 1 -p tcp -e 1040 -c 1 -i 33 -a 1 -x {3.0 4.0 20 ------- null}
h -t 1.31392 -s 3 -d 1 -p tcp -e 1040 -c 1 -i 33 -a 1 -x {3.0 4.0 -1 ------- null}
r -t 1.31424 -s 4 -d 2 -p ack -e 40 -c 1 -i 31 -a 1 -x {4.0 3.0 12 ------- null}
+ -t 1.31424 -s 2 -d 1 -p ack -e 40 -c 1 -i 31 -a 1 -x {4.0 3.0 12 ------- null}
- -t 1.31424 -s 2 -d 1 -p ack -e 40 -c 1 -i 31 -a 1 -x {4.0 3.0 12 ------- null}
h -t 1.31424 -s 2 -d 1 -p ack -e 40 -c 1 -i 31 -a 1 -x {4.0 3.0 -1 ------- null}
r -t 1.3156 -s 3 -d 1 -p tcp -e 1040 -c 1 -i 29 -a 1 -x {3.0 4.0 17 ------- null}
+ -t 1.3156 -s 1 -d 2 -p tcp -e 1040 -c 1 -i 29 -a 1 -x {3.0 4.0 17 ------- null}
- -t 1.3156 -s 1 -d 2 -p tcp -e 1040 -c 1 -i 27 -a 1 -x {3.0 4.0 16 ------- null}
h -t 1.3156 -s 1 -d 2 -p tcp -e 1040 -c 1 -i 27 -a 1 -x {3.0 4.0 -1 ------- null}
r -t 1.31624 -s 2 -d 1 -p ack -e 40 -c 1 -i 28 -a 1 -x {4.0 3.0 11 ------- null}
+ -t 1.31624 -s 1 -d 3 -p ack -e 40 -c 1 -i 28 -a 1 -x {4.0 3.0 11 ------- null}
- -t 1.31624 -s 1 -d 3 -p ack -e 40 -c 1 -i 28 -a 1 -x {4.0 3.0 11 ------- null}
h -t 1.31624 -s 1 -d 3 -p ack -e 40 -c 1 -i 28 -a 1 -x {4.0 3.0 -1 ------- null}
r -t 1.31808 -s 1 -d 3 -p ack -e 40 -c 1 -i 25 -a 1 -x {4.0 3.0 10 ------- null}
+ -t 1.31808 -s 3 -d 1 -p tcp -e 1040 -c 1 -i 35 -a 1 -x {3.0 4.0 21 ------- null}